   27   27  100    1
  0.9710400E+02  0.1002848E-08  0.1002848E-08  0.3000000E-08  0.5000000E-15
  1.000000000000000E-004
  CAR 
 unknown system                          
    162     21    112
 
  0.0000000E+00  0.0000000E+00  0.0000000E+00  0.1562500E-01
    1      -18.123450   1.000000
    2      -16.931031   1.000000
    3      -16.524735   1.000000
    4      -16.524735   1.000000
    5      -16.524734   1.000000
    6      -16.524734   1.000000
    7      -16.524503   1.000000
    8      -16.524503   1.000000
    9      -15.953236   1.000000
   10      -15.953236   1.000000
   11      -15.953235   1.000000
   12      -15.953235   1.000000
   13      -15.952992   1.000000
   14      -15.952992   1.000000
   15      -15.304290   1.000000
   16      -15.304290   1.000000
   17      -15.304166   1.000000
   18      -15.304166   1.000000
   19       -9.041540   1.000000
   20       -8.459946   1.000000
   21       -8.459946   1.000000
   22       -8.459943   1.000000
   23       -8.459943   1.000000
   24       -8.459744   1.000000
   25       -8.459744   1.000000
   26       -8.398920   1.000000
   27       -8.398920   1.000000
   28       -8.398853   1.000000
   29       -8.398853   1.000000
   30       -8.332981   1.000000
   31       -8.332981   1.000000
   32       -7.933303   1.000000
   33       -7.933303   1.000000
   34       -7.933302   1.000000
   35       -7.933302   1.000000
   36       -7.933159   1.000000
   37       -7.933159   1.000000
   38       -7.383054   1.000000
   39       -7.383054   1.000000
   40       -7.383054   1.000000
   41       -7.383054   1.000000
   42       -7.382852   1.000000
   43       -7.382852   1.000000
   44       -6.967308   1.000000
   45       -6.967308   1.000000
   46       -6.279642   1.000000
   47       -6.279642   1.000000
   48       -6.279333   1.000000
   49       -6.279333   1.000000
   50       -6.028218   1.000000
   51       -6.028218   1.000000
   52       -6.027526   1.000000
   53       -6.027526   1.000000
   54       -6.027522   1.000000
   55       -6.027522   1.000000
   56       -5.958494   1.000000
   57       -5.957914   1.000000
   58       -5.627491   1.000000
   59       -5.434462   1.000000
   60       -5.434462   1.000000
   61       -5.434461   1.000000
   62       -5.434461   1.000000
   63       -5.434156   1.000000
   64       -5.434156   1.000000
   65       -4.402862   1.000000
   66       -4.402862   1.000000
   67       -4.402096   1.000000
   68       -4.402096   1.000000
   69       -4.402093   1.000000
   70       -4.402093   1.000000
   71       -4.226999   1.000000
   72       -4.226999   1.000000
   73       -4.226995   1.000000
   74       -4.226995   1.000000
   75       -4.226747   1.000000
   76       -4.226747   1.000000
   77       -3.724979   1.000000
   78       -3.724514   1.000000
   79       -3.609292   1.000000
   80       -2.637155   0.052223
   81       -2.637155   0.052223
   82       -2.637098   0.052180
   83       -2.637098   0.052180
   84       -2.606278   0.032737
   85       -2.606278   0.032737
   86       -2.424375   0.000879
   87       -2.424375   0.000879
   88       -2.424106   0.000874
   89       -2.424106   0.000874
   90       -2.424105   0.000874
   91       -2.424105   0.000874
   92       -2.319931   0.000055
   93       -2.319931   0.000055
   94       -2.319928   0.000055
   95       -2.319928   0.000055
   96       -2.319866   0.000055
   97       -2.319866   0.000055
   98       -2.293096   0.000025
   99       -2.292344   0.000024
  100       -0.816096   0.000000
  101       -0.816096   0.000000
  102       -0.815999   0.000000
  103       -0.815999   0.000000
  104       -0.638181   0.000000
  105       -0.638181   0.000000
  106       -0.638179   0.000000
  107       -0.638179   0.000000
  108       -0.638028   0.000000
  109       -0.638028   0.000000
  110       -0.251904   0.000000
  111       -0.251860   0.000000
  112       -0.251666   0.000000
 
  0.1250000E+00  0.2775558E-16  0.0000000E+00  0.6250000E-01
    1      -18.094518   1.000000
    2      -16.912257   1.000000
    3      -16.844509   1.000000
    4      -16.667584   1.000000
    5      -16.667407   1.000000
    6      -16.351822   1.000000
    7      -16.351547   1.000000
    8      -16.217472   1.000000
    9      -16.137552   1.000000
   10      -16.034776   1.000000
   11      -16.034584   1.000000
   12      -15.855912   1.000000
   13      -15.855629   1.000000
   14      -15.780994   1.000000
   15      -15.337518   1.000000
   16      -15.337455   1.000000
   17      -15.319180   1.000000
   18      -15.319038   1.000000
   19       -9.010157   1.000000
   20       -8.932370   1.000000
   21       -8.686188   1.000000
   22       -8.686047   1.000000
   23       -8.675382   1.000000
   24       -8.675210   1.000000
   25       -8.404929   1.000000
   26       -8.404811   1.000000
   27       -8.267196   1.000000
   28       -8.251171   1.000000
   29       -8.250976   1.000000
   30       -8.121928   1.000000
   31       -8.121898   1.000000
   32       -8.092299   1.000000
   33       -7.965084   1.000000
   34       -7.965063   1.000000
   35       -7.697084   1.000000
   36       -7.696813   1.000000
   37       -7.678755   1.000000
   38       -7.497906   1.000000
   39       -7.497772   1.000000
   40       -7.370723   1.000000
   41       -7.240134   1.000000
   42       -7.239967   1.000000
   43       -7.146635   1.000000
   44       -6.947768   1.000000
   45       -6.947651   1.000000
   46       -6.308314   1.000000
   47       -6.308188   1.000000
   48       -6.219592   1.000000
   49       -6.219405   1.000000
   50       -6.149117   1.000000
   51       -6.131801   1.000000
   52       -6.131181   1.000000
   53       -6.106415   1.000000
   54       -6.038073   1.000000
   55       -6.037462   1.000000
   56       -5.949684   1.000000
   57       -5.949624   1.000000
   58       -5.640002   1.000000
   59       -5.506636   1.000000
   60       -5.506433   1.000000
   61       -5.461067   1.000000
   62       -5.274198   1.000000
   63       -5.274025   1.000000
   64       -5.182535   1.000000
   65       -4.710096   1.000000
   66       -4.709751   1.000000
   67       -4.687551   1.000000
   68       -4.687041   1.000000
   69       -4.441714   1.000000
   70       -4.341685   1.000000
   71       -4.302512   1.000000
   72       -4.126949   1.000000
   73       -3.991913   1.000000
   74       -3.991682   1.000000
   75       -3.976415   1.000000
   76       -3.976383   1.000000
   77       -3.803454   1.000000
   78       -3.777584   1.000000
   79       -3.626591   1.000000
   80       -2.780861   0.271756
   81       -2.780690   0.271354
   82       -2.623388   0.042624
   83       -2.623345   0.042597
   84       -2.529273   0.008505
   85       -2.517590   0.006772
   86       -2.517365   0.006742
   87       -2.484772   0.003455
   88       -2.484506   0.003435
   89       -2.460157   0.002019
   90       -2.460020   0.002012
   91       -2.393739   0.000412
   92       -2.333294   0.000081
   93       -2.309088   0.000040
   94       -2.289527   0.000022
   95       -2.289376   0.000022
   96       -2.260422   0.000009
   97       -2.260018   0.000009
   98       -2.259885   0.000009
   99       -2.242320   0.000005
  100       -1.065926   0.000000
  101       -1.065924   0.000000
  102       -0.893618   0.000000
  103       -0.811153   0.000000
  104       -0.811112   0.000000
  105       -0.601262   0.000000
  106       -0.601219   0.000000
  107       -0.553583   0.000000
  108       -0.553532   0.000000
  109       -0.370853   0.000000
  110       -0.285095   0.000000
  111       -0.284739   0.000000
  112       -0.257729   0.000000
 
  0.2500000E+00  0.5551115E-16  0.0000000E+00  0.6250000E-01
    1      -18.008304   1.000000
    2      -17.152550   1.000000
    3      -16.856507   1.000000
    4      -16.773920   1.000000
    5      -16.773800   1.000000
    6      -16.320860   1.000000
    7      -16.157670   1.000000
    8      -16.157366   1.000000
    9      -16.096114   1.000000
   10      -16.095982   1.000000
   11      -15.956893   1.000000
   12      -15.748543   1.000000
   13      -15.748238   1.000000
   14      -15.634979   1.000000
   15      -15.430457   1.000000
   16      -15.430272   1.000000
   17      -15.365716   1.000000
   18      -15.365513   1.000000
   19       -9.373438   1.000000
   20       -8.916799   1.000000
   21       -8.909204   1.000000
   22       -8.909085   1.000000
   23       -8.864856   1.000000
   24       -8.864770   1.000000
   25       -8.468631   1.000000
   26       -8.417260   1.000000
   27       -8.417091   1.000000
   28       -8.258534   1.000000
   29       -8.258459   1.000000
   30       -8.073438   1.000000
   31       -8.073298   1.000000
   32       -8.039817   1.000000
   33       -7.710564   1.000000
   34       -7.621929   1.000000
   35       -7.621781   1.000000
   36       -7.514477   1.000000
   37       -7.514471   1.000000
   38       -7.397711   1.000000
   39       -7.397419   1.000000
   40       -7.086585   1.000000
   41       -7.086423   1.000000
   42       -7.005877   1.000000
   43       -6.882574   1.000000
   44       -6.882373   1.000000
   45       -6.693500   1.000000
   46       -6.455638   1.000000
   47       -6.362199   1.000000
   48       -6.362194   1.000000
   49       -6.314426   1.000000
   50       -6.313950   1.000000
   51       -6.171916   1.000000
   52       -6.081410   1.000000
   53       -6.081224   1.000000
   54       -6.077419   1.000000
   55       -6.076998   1.000000
   56       -5.926623   1.000000
   57       -5.890715   1.000000
   58       -5.735535   1.000000
   59       -5.538159   1.000000
   60       -5.538002   1.000000
   61       -5.234242   1.000000
   62       -5.193919   1.000000
   63       -5.193643   1.000000
   64       -5.163462   1.000000
   65       -5.163141   1.000000
   66       -4.970627   1.000000
   67       -4.948995   1.000000
   68       -4.948902   1.000000
   69       -4.437112   1.000000
   70       -4.362308   1.000000
   71       -4.282097   1.000000
   72       -4.079190   1.000000
   73       -3.995044   1.000000
   74       -3.912840   1.000000
   75       -3.738756   1.000000
   76       -3.738707   1.000000
   77       -3.718426   1.000000
   78       -3.718210   1.000000
   79       -3.650647   1.000000
   80       -2.941549   0.701502
   81       -2.941419   0.701181
   82       -2.612331   0.035993
   83       -2.609165   0.034259
   84       -2.609024   0.034183
   85       -2.608646   0.033981
   86       -2.608609   0.033961
   87       -2.556744   0.014180
   88       -2.556610   0.014146
   89       -2.446463   0.001479
   90       -2.410998   0.000635
   91       -2.376890   0.000266
   92       -2.376555   0.000264
   93       -2.242096   0.000005
   94       -2.241964   0.000005
   95       -2.216458   0.000002
   96       -2.216264   0.000002
   97       -2.201702   0.000001
   98       -2.187839   0.000001
   99       -2.176757   0.000001
  100       -1.246392   0.000000
  101       -1.246366   0.000000
  102       -1.077748   0.000000
  103       -1.000318   0.000000
  104       -1.000299   0.000000
  105       -0.781324   0.000000
  106       -0.781130   0.000000
  107       -0.361272   0.000000
  108       -0.361107   0.000000
  109       -0.323185   0.000000
  110       -0.323153   0.000000
  111       -0.304889   0.000000
  112       -0.253544   0.000000
 
  0.3750000E+00  0.0000000E+00  0.0000000E+00  0.6250000E-01
    1      -17.866698   1.000000
    2      -17.432442   1.000000
    3      -16.839379   1.000000
    4      -16.839317   1.000000
    5      -16.765557   1.000000
    6      -16.492097   1.000000
    7      -16.134131   1.000000
    8      -16.134064   1.000000
    9      -15.953701   1.000000
   10      -15.953385   1.000000
   11      -15.782924   1.000000
   12      -15.638011   1.000000
   13      -15.637698   1.000000
   14      -15.574039   1.000000
   15      -15.573775   1.000000
   16      -15.531079   1.000000
   17      -15.438773   1.000000
   18      -15.438514   1.000000
   19       -9.676160   1.000000
   20       -9.033355   1.000000
   21       -9.033267   1.000000
   22       -8.999998   1.000000
   23       -8.999980   1.000000
   24       -8.764277   1.000000
   25       -8.585570   1.000000
   26       -8.421019   1.000000
   27       -8.420828   1.000000
   28       -8.349905   1.000000
   29       -8.349754   1.000000
   30       -8.307161   1.000000
   31       -7.943288   1.000000
   32       -7.943247   1.000000
   33       -7.684397   1.000000
   34       -7.684286   1.000000
   35       -7.418389   1.000000
   36       -7.177433   1.000000
   37       -7.177220   1.000000
   38       -7.093516   1.000000
   39       -7.093459   1.000000
   40       -6.960787   1.000000
   41       -6.945272   1.000000
   42       -6.945172   1.000000
   43       -6.778706   1.000000
   44       -6.754239   1.000000
   45       -6.754065   1.000000
   46       -6.502717   1.000000
   47       -6.502350   1.000000
   48       -6.396037   1.000000
   49       -6.395998   1.000000
   50       -6.214566   1.000000
   51       -6.037405   1.000000
   52       -6.037257   1.000000
   53       -5.974171   1.000000
   54       -5.899916   1.000000
   55       -5.899783   1.000000
   56       -5.896021   1.000000
   57       -5.864125   1.000000
   58       -5.734636   1.000000
   59       -5.694478   1.000000
   60       -5.694396   1.000000
   61       -5.576442   1.000000
   62       -5.576328   1.000000
   63       -5.511626   1.000000
   64       -5.511234   1.000000
   65       -5.080936   1.000000
   66       -4.857208   1.000000
   67       -4.856832   1.000000
   68       -4.856782   1.000000
   69       -4.529943   1.000000
   70       -4.405278   1.000000
   71       -4.371944   1.000000
   72       -4.239553   1.000000
   73       -4.083592   1.000000
   74       -3.853401   1.000000
   75       -3.684393   1.000000
   76       -3.581230   1.000000
   77       -3.581162   1.000000
   78       -3.482123   0.999993
   79       -3.481976   0.999993
   80       -3.105614   0.954375
   81       -3.105485   0.954287
   82       -2.665216   0.077043
   83       -2.654153   0.066358
   84       -2.654119   0.066327
   85       -2.636187   0.051496
   86       -2.636101   0.051433
   87       -2.615228   0.037643
   88       -2.615206   0.037631
   89       -2.470395   0.002533
   90       -2.461792   0.002094
   91       -2.299199   0.000030
   92       -2.298827   0.000030
   93       -2.229132   0.000003
   94       -2.229066   0.000003
   95       -2.209923   0.000002
   96       -2.209623   0.000002
   97       -2.133987   0.000000
   98       -2.123573   0.000000
   99       -2.120569   0.000000
  100       -1.302775   0.000000
  101       -1.302695   0.000000
  102       -1.145882   0.000000
  103       -1.145848   0.000000
  104       -1.122492   0.000000
  105       -1.025189   0.000000
  106       -1.024996   0.000000
  107       -0.671693   0.000000
  108       -0.425760   0.000000
  109       -0.425698   0.000000
  110       -0.226308   0.000000
  111       -0.157230   0.000000
  112       -0.157008   0.000000
 
  0.5000000E+00  0.1110223E-15  0.0000000E+00  0.3125000E-01
    1      -17.673025   1.000000
    2      -17.673021   1.000000
    3      -16.861449   1.000000
    4      -16.861449   1.000000
    5      -16.642527   1.000000
    6      -16.642523   1.000000
    7      -16.146983   1.000000
    8      -16.146983   1.000000
    9      -15.753878   1.000000
   10      -15.753878   1.000000
   11      -15.753572   1.000000
   12      -15.753571   1.000000
   13      -15.722905   1.000000
   14      -15.532067   1.000000
   15      -15.532067   1.000000
   16      -15.531770   1.000000
   17      -15.531770   1.000000
   18      -15.491559   1.000000
   19       -9.783894   1.000000
   20       -9.060773   1.000000
   21       -9.060769   1.000000
   22       -9.060733   1.000000
   23       -9.060733   1.000000
   24       -8.624750   1.000000
   25       -8.557953   1.000000
   26       -8.557949   1.000000
   27       -8.401900   1.000000
   28       -8.401898   1.000000
   29       -8.401712   1.000000
   30       -8.401712   1.000000
   31       -7.889192   1.000000
   32       -7.889192   1.000000
   33       -7.713843   1.000000
   34       -7.713843   1.000000
   35       -7.102323   1.000000
   36       -7.102322   1.000000
   37       -7.090403   1.000000
   38       -7.090403   1.000000
   39       -6.955941   1.000000
   40       -6.892498   1.000000
   41       -6.892497   1.000000
   42       -6.892497   1.000000
   43       -6.892495   1.000000
   44       -6.639012   1.000000
   45       -6.639010   1.000000
   46       -6.638857   1.000000
   47       -6.638857   1.000000
   48       -6.229315   1.000000
   49       -6.161040   1.000000
   50       -6.161039   1.000000
   51       -6.160833   1.000000
   52       -6.160833   1.000000
   53       -5.870036   1.000000
   54       -5.870032   1.000000
   55       -5.855848   1.000000
   56       -5.855848   1.000000
   57       -5.820652   1.000000
   58       -5.820652   1.000000
   59       -5.722628   1.000000
   60       -5.722628   1.000000
   61       -5.722543   1.000000
   62       -5.722543   1.000000
   63       -5.719339   1.000000
   64       -5.310158   1.000000
   65       -5.310158   1.000000
   66       -4.822112   1.000000
   67       -4.822110   1.000000
   68       -4.800712   1.000000
   69       -4.800712   1.000000
   70       -4.421801   1.000000
   71       -4.247506   1.000000
   72       -4.247504   1.000000
   73       -4.224207   1.000000
   74       -3.746133   1.000000
   75       -3.746130   1.000000
   76       -3.524648   0.999998
   77       -3.524648   0.999998
   78       -3.281112   0.998304
   79       -3.281110   0.998304
   80       -3.280985   0.998299
   81       -3.280985   0.998299
   82       -2.683302   0.097254
   83       -2.667057   0.078942
   84       -2.667057   0.078942
   85       -2.645126   0.058522
   86       -2.645123   0.058519
   87       -2.645105   0.058504
   88       -2.645105   0.058504
   89       -2.475406   0.002825
   90       -2.475403   0.002825
   91       -2.241320   0.000005
   92       -2.241320   0.000005
   93       -2.240987   0.000005
   94       -2.240983   0.000005
   95       -2.230527   0.000003
   96       -2.230527   0.000003
   97       -2.119287   0.000000
   98       -2.094318   0.000000
   99       -2.094318   0.000000
  100       -1.219224   0.000000
  101       -1.219222   0.000000
  102       -1.219077   0.000000
  103       -1.219077   0.000000
  104       -1.200640   0.000000
  105       -1.200640   0.000000
  106       -0.977924   0.000000
  107       -0.977922   0.000000
  108       -0.449113   0.000000
  109       -0.449113   0.000000
  110       -0.224535   0.000000
  111       -0.167862   0.000000
  112       -0.165154   0.000000
 
  0.1250000E+00  0.1250000E+00  0.0000000E+00  0.3125000E-01
    1      -18.036942   1.000000
    2      -16.982799   1.000000
    3      -16.982799   1.000000
    4      -16.874995   1.000000
    5      -16.459103   1.000000
    6      -16.459103   1.000000
    7      -16.219088   1.000000
    8      -16.219088   1.000000
    9      -16.064385   1.000000
   10      -16.064385   1.000000
   11      -15.915961   1.000000
   12      -15.915961   1.000000
   13      -15.696105   1.000000
   14      -15.696105   1.000000
   15      -15.411654   1.000000
   16      -15.389334   1.000000
   17      -15.364985   1.000000
   18      -15.334500   1.000000
   19       -9.146011   1.000000
   20       -9.146011   1.000000
   21       -8.958010   1.000000
   22       -8.947707   1.000000
   23       -8.733537   1.000000
   24       -8.447181   1.000000
   25       -8.415078   1.000000
   26       -8.415078   1.000000
   27       -8.403834   1.000000
   28       -8.375094   1.000000
   29       -8.375094   1.000000
   30       -7.969467   1.000000
   31       -7.969467   1.000000
   32       -7.940262   1.000000
   33       -7.940262   1.000000
   34       -7.770202   1.000000
   35       -7.770202   1.000000
   36       -7.681901   1.000000
   37       -7.596694   1.000000
   38       -7.320316   1.000000
   39       -7.320316   1.000000
   40       -7.054127   1.000000
   41       -7.054127   1.000000
   42       -7.047989   1.000000
   43       -7.047989   1.000000
   44       -6.915731   1.000000
   45       -6.896589   1.000000
   46       -6.370073   1.000000
   47       -6.358565   1.000000
   48       -6.329495   1.000000
   49       -6.213376   1.000000
   50       -6.213376   1.000000
   51       -6.205558   1.000000
   52       -6.205558   1.000000
   53       -6.153623   1.000000
   54       -6.097683   1.000000
   55       -5.944980   1.000000
   56       -5.944980   1.000000
   57       -5.935023   1.000000
   58       -5.668297   1.000000
   59       -5.668297   1.000000
   60       -5.327123   1.000000
   61       -5.327123   1.000000
   62       -5.290983   1.000000
   63       -5.120059   1.000000
   64       -5.120059   1.000000
   65       -5.059072   1.000000
   66       -5.059072   1.000000
   67       -4.719804   1.000000
   68       -4.719804   1.000000
   69       -4.624419   1.000000
   70       -4.624419   1.000000
   71       -3.989940   1.000000
   72       -3.989940   1.000000
   73       -3.950484   1.000000
   74       -3.926707   1.000000
   75       -3.926707   1.000000
   76       -3.912254   1.000000
   77       -3.731489   1.000000
   78       -3.731489   1.000000
   79       -3.637071   1.000000
   80       -2.952905   0.728745
   81       -2.797081   0.311071
   82       -2.719522   0.148881
   83       -2.589890   0.025122
   84       -2.589890   0.025122
   85       -2.578401   0.020719
   86       -2.578401   0.020719
   87       -2.541154   0.010654
   88       -2.459346   0.001982
   89       -2.459346   0.001982
   90       -2.425688   0.000907
   91       -2.388032   0.000356
   92       -2.388023   0.000356
   93       -2.251921   0.000007
   94       -2.251921   0.000007
   95       -2.237326   0.000004
   96       -2.237326   0.000004
   97       -2.212701   0.000002
   98       -2.204208   0.000001
   99       -2.204208   0.000001
  100       -1.249395   0.000000
  101       -1.165388   0.000000
  102       -0.993579   0.000000
  103       -0.993579   0.000000
  104       -0.901646   0.000000
  105       -0.901646   0.000000
  106       -0.442251   0.000000
  107       -0.442251   0.000000
  108       -0.400573   0.000000
  109       -0.361242   0.000000
  110       -0.312869   0.000000
  111       -0.312725   0.000000
  112       -0.254964   0.000000
 
  0.2500000E+00  0.1250000E+00  0.0000000E+00  0.6250000E-01
    1      -17.923024   1.000000
    2      -17.277448   1.000000
    3      -17.077549   1.000000
    4      -16.801636   1.000000
    5      -16.533991   1.000000
    6      -16.396705   1.000000
    7      -16.275525   1.000000
    8      -16.229326   1.000000
    9      -15.958156   1.000000
   10      -15.902466   1.000000
   11      -15.843561   1.000000
   12      -15.788381   1.000000
   13      -15.606808   1.000000
   14      -15.569787   1.000000
   15      -15.561292   1.000000
   16      -15.477391   1.000000
   17      -15.439532   1.000000
   18      -15.376700   1.000000
   19       -9.524310   1.000000
   20       -9.291178   1.000000
   21       -9.182923   1.000000
   22       -8.824737   1.000000
   23       -8.774105   1.000000
   24       -8.567821   1.000000
   25       -8.529049   1.000000
   26       -8.444546   1.000000
   27       -8.440292   1.000000
   28       -8.433293   1.000000
   29       -8.205266   1.000000
   30       -8.149912   1.000000
   31       -8.135231   1.000000
   32       -7.957086   1.000000
   33       -7.743217   1.000000
   34       -7.739290   1.000000
   35       -7.581811   1.000000
   36       -7.381578   1.000000
   37       -7.295012   1.000000
   38       -7.174781   1.000000
   39       -7.119165   1.000000
   40       -6.962884   1.000000
   41       -6.956227   1.000000
   42       -6.833095   1.000000
   43       -6.796462   1.000000
   44       -6.773179   1.000000
   45       -6.661231   1.000000
   46       -6.438644   1.000000
   47       -6.419026   1.000000
   48       -6.367534   1.000000
   49       -6.365231   1.000000
   50       -6.348302   1.000000
   51       -6.259137   1.000000
   52       -6.251071   1.000000
   53       -5.971337   1.000000
   54       -5.950146   1.000000
   55       -5.921816   1.000000
   56       -5.912701   1.000000
   57       -5.864655   1.000000
   58       -5.721317   1.000000
   59       -5.670873   1.000000
   60       -5.617691   1.000000
   61       -5.562334   1.000000
   62       -5.402618   1.000000
   63       -5.181303   1.000000
   64       -5.140919   1.000000
   65       -5.133129   1.000000
   66       -5.117284   1.000000
   67       -4.929540   1.000000
   68       -4.728588   1.000000
   69       -4.710916   1.000000
   70       -4.513787   1.000000
   71       -4.314942   1.000000
   72       -4.082655   1.000000
   73       -3.985424   1.000000
   74       -3.839084   1.000000
   75       -3.723387   1.000000
   76       -3.714745   1.000000
   77       -3.651014   1.000000
   78       -3.539713   0.999999
   79       -3.499569   0.999996
   80       -3.127118   0.967181
   81       -2.930883   0.674835
   82       -2.707527   0.130069
   83       -2.662179   0.073987
   84       -2.657332   0.069304
   85       -2.644683   0.058157
   86       -2.636069   0.051409
   87       -2.544757   0.011392
   88       -2.528899   0.008444
   89       -2.468215   0.002414
   90       -2.439673   0.001264
   91       -2.330841   0.000075
   92       -2.318028   0.000052
   93       -2.252093   0.000007
   94       -2.211778   0.000002
   95       -2.211632   0.000002
   96       -2.199190   0.000001
   97       -2.186715   0.000001
   98       -2.159772   0.000000
   99       -2.157066   0.000000
  100       -1.391374   0.000000
  101       -1.204717   0.000000
  102       -1.178202   0.000000
  103       -1.121227   0.000000
  104       -1.076391   0.000000
  105       -1.021672   0.000000
  106       -0.675792   0.000000
  107       -0.498901   0.000000
  108       -0.446350   0.000000
  109       -0.332303   0.000000
  110       -0.305209   0.000000
  111       -0.284041   0.000000
  112       -0.218139   0.000000
 
  0.3750000E+00  0.1250000E+00  0.0000000E+00  0.6250000E-01
    1      -17.755327   1.000000
    2      -17.538023   1.000000
    3      -17.125659   1.000000
    4      -16.694604   1.000000
    5      -16.572389   1.000000
    6      -16.557744   1.000000
    7      -16.304350   1.000000
    8      -15.991254   1.000000
    9      -15.979859   1.000000
   10      -15.762037   1.000000
   11      -15.743104   1.000000
   12      -15.725501   1.000000
   13      -15.660137   1.000000
   14      -15.597735   1.000000
   15      -15.540803   1.000000
   16      -15.519423   1.000000
   17      -15.495502   1.000000
   18      -15.440271   1.000000
   19       -9.732874   1.000000
   20       -9.351494   1.000000
   21       -9.316585   1.000000
   22       -8.761946   1.000000
   23       -8.689732   1.000000
   24       -8.645027   1.000000
   25       -8.605540   1.000000
   26       -8.475360   1.000000
   27       -8.470814   1.000000
   28       -8.415456   1.000000
   29       -8.375172   1.000000
   30       -8.277721   1.000000
   31       -8.088602   1.000000
   32       -7.984859   1.000000
   33       -7.685724   1.000000
   34       -7.593094   1.000000
   35       -7.415651   1.000000
   36       -7.280889   1.000000
   37       -6.970530   1.000000
   38       -6.951243   1.000000
   39       -6.947066   1.000000
   40       -6.934483   1.000000
   41       -6.927029   1.000000
   42       -6.895263   1.000000
   43       -6.698942   1.000000
   44       -6.657666   1.000000
   45       -6.623612   1.000000
   46       -6.608820   1.000000
   47       -6.521647   1.000000
   48       -6.490081   1.000000
   49       -6.273454   1.000000
   50       -6.189181   1.000000
   51       -6.140786   1.000000
   52       -6.118321   1.000000
   53       -5.922969   1.000000
   54       -5.922672   1.000000
   55       -5.895239   1.000000
   56       -5.804885   1.000000
   57       -5.760201   1.000000
   58       -5.752535   1.000000
   59       -5.750847   1.000000
   60       -5.711580   1.000000
   61       -5.644600   1.000000
   62       -5.582050   1.000000
   63       -5.550045   1.000000
   64       -5.447401   1.000000
   65       -5.091993   1.000000
   66       -5.032525   1.000000
   67       -4.870522   1.000000
   68       -4.765594   1.000000
   69       -4.735479   1.000000
   70       -4.645859   1.000000
   71       -4.390930   1.000000
   72       -4.250029   1.000000
   73       -3.983766   1.000000
   74       -3.745798   1.000000
   75       -3.682893   1.000000
   76       -3.609450   1.000000
   77       -3.491113   0.999995
   78       -3.432980   0.999969
   79       -3.302334   0.998965
   80       -3.287391   0.998531
   81       -3.097507   0.948609
   82       -2.707924   0.130664
   83       -2.697389   0.115507
   84       -2.695183   0.112498
   85       -2.672693   0.084974
   86       -2.633699   0.049665
   87       -2.589198   0.024836
   88       -2.571938   0.018543
   89       -2.463739   0.002187
   90       -2.459323   0.001981
   91       -2.281197   0.000017
   92       -2.265411   0.000011
   93       -2.254276   0.000007
   94       -2.223512   0.000003
   95       -2.204042   0.000001
   96       -2.199598   0.000001
   97       -2.161395   0.000000
   98       -2.140908   0.000000
   99       -2.131371   0.000000
  100       -1.417788   0.000000
  101       -1.346875   0.000000
  102       -1.318873   0.000000
  103       -1.120914   0.000000